# vtk DataFile Version 4.0
vtk output
ASCII
DATASET UNSTRUCTURED_GRID
POINTS 8 float
0.0000000e+00 1.0160000e-01 5.0800000e-03 
0.0000000e+00 1.0160000e-01 0.0000000e+00 
0.0000000e+00 0.0000000e+00 5.0800000e-03 
0.0000000e+00 0.0000000e+00 0.0000000e+00 
2.0320000e-01 1.0160000e-01 5.0800000e-03 
2.0320000e-01 1.0160000e-01 0.0000000e+00 
2.0320000e-01 0.0000000e+00 5.0800000e-03 
2.0320000e-01 0.0000000e+00 0.0000000e+00 

CELLS 1 9
8 4 0 1 5 6 2 3 7

CELL_TYPES 1
12
POINT_DATA 8
FIELD FieldData 2
DISPLACEMENT 3 8  float
0.0000000e+00 -3.3866667e-04 0.0000000e+00 
0.0000000e+00 -3.3866667e-04 0.0000000e+00 
0.0000000e+00 0.0000000e+00 0.0000000e+00 
0.0000000e+00 0.0000000e+00 0.0000000e+00 
2.0320000e-03 -3.3866667e-04 0.0000000e+00 
2.0320000e-03 -3.3866667e-04 0.0000000e+00 
2.0320000e-03 0.0000000e+00 0.0000000e+00 
2.0320000e-03 0.0000000e+00 0.0000000e+00 
REACTION 3 8  float
-2.7526827e+00 -4.6317106e-14 2.7526827e+01 
-2.7526827e+00 -3.7636262e-14 -2.7526827e+01 
-2.7526827e+00 3.7411512e-14 2.7526827e+01 
-2.7526827e+00 4.0050646e-14 -2.7526827e+01 
2.7526827e+00 -2.7458128e-14 2.7526827e+01 
2.7526827e+00 -2.2841389e-14 -2.7526827e+01 
2.7526827e+00 2.3828971e-14 2.7526827e+01 
2.7526827e+00 3.2961756e-14 -2.7526827e+01 
CELL_DATA 1
FIELD FieldData 0
